TITLE     = "Flow in Deep"
VARIABLES = "x" "y" "z" "u" "v" "w"
ZONE T="Rectangular zone"
 X=40, Y=20, Z=10, F=POINT_VECTOR
DT=(SINGLE SINGLE SINGLE SINGLE SINGLE SINGLE )
 -4.260E+002 -1.100E+002 0.000E+000 4.910E-002 2.230E-002 -1.590E-002
 -4.055E+002 -1.100E+002 0.000E+000 5.633E-002 2.259E-002 -1.866E-002
 -3.851E+002 -1.100E+002 0.000E+000 5.924E-002 2.242E-002 -2.038E-002
 -3.646E+002 -1.100E+002 0.000E+000 6.007E-002 2.222E-002 -2.105E-002
 -3.442E+002 -1.100E+002 0.000E+000 5.639E-002 2.250E-002 -2.016E-002
 -3.237E+002 -1.100E+002 0.000E+000 5.266E-002 2.288E-002 -1.922E-002
 -3.032E+002 -1.100E+002 0.000E+000 4.753E-002 2.346E-002 -1.856E-002
 -2.828E+002 -1.100E+002 0.000E+000 3.836E-002 2.470E-002 -1.834E-002
 -2.623E+002 -1.100E+002 0.000E+000 2.608E-002 2.651E-002 -1.884E-002
 -2.418E+002 -1.100E+002 0.000E+000 1.380E-002 2.794E-002 -1.951E-002
 -2.214E+002 -1.100E+002 0.000E+000 3.047E-003 2.811E-002 -2.040E-002
 -2.009E+002 -1.100E+002 0.000E+000 -6.028E-003 2.514E-002 -2.209E-002
 -1.805E+002 -1.100E+002 0.000E+000 -1.569E-002 2.162E-002 -2.434E-002
 -1.600E+002 -1.100E+002 0.000E+000 -2.426E-002 1.847E-002 -2.637E-002
 -1.395E+002 -1.100E+002 0.000E+000 -3.064E-002 1.574E-002 -2.779E-002
 -1.191E+002 -1.100E+002 0.000E+000 -3.198E-002 1.351E-002 -2.926E-002
 -9.862E+001 -1.100E+002 0.000E+000 -3.249E-002 1.171E-002 -3.061E-002
 -7.815E+001 -1.100E+002 0.000E+000 -3.106E-002 1.025E-002 -3.238E-002
 -5.769E+001 -1.100E+002 0.000E+000 -2.757E-002 9.671E-003 -3.503E-002
 -3.723E+001 -1.100E+002 0.000E+000 -2.498E-002 9.555E-003 -3.835E-002
 -1.677E+001 -1.100E+002 0.000E+000 -2.397E-002 8.875E-003 -4.103E-002
 3.692E+000 -1.100E+002 0.000E+000 -2.386E-002 7.690E-003 -4.260E-002
 2.415E+001 -1.100E+002 0.000E+000 -2.310E-002 6.465E-003 -4.451E-002
 4.462E+001 -1.100E+002 0.000E+000 -1.945E-002 5.363E-003 -4.716E-002
 6.508E+001 -1.100E+002 0.000E+000 -1.062E-002 5.027E-003 -4.893E-002
 8.554E+001 -1.100E+002 0.000E+000 5.618E-003 5.993E-003 -4.977E-002
 1.060E+002 -1.100E+002 0.000E+000 2.352E-002 7.419E-003 -5.242E-002
 1.265E+002 -1.100E+002 0.000E+000 3.254E-002 8.777E-003 -5.162E-002
 1.469E+002 -1.100E+002 0.000E+000 3.332E-002 9.636E-003 -4.729E-002
 1.674E+002 -1.100E+002 0.000E+000 4.143E-002 1.050E-002 -4.370E-002
 1.878E+002 -1.100E+002 0.000E+000 5.258E-002 1.094E-002 -4.142E-002
 2.083E+002 -1.100E+002 0.000E+000 6.046E-002 1.055E-002 -3.817E-002
 2.288E+002 -1.100E+002 0.000E+000 6.709E-002 9.465E-003 -3.467E-002
 2.492E+002 -1.100E+002 0.000E+000 7.215E-002 8.956E-003 -3.253E-002
 2.697E+002 -1.100E+002 0.000E+000 7.384E-002 7.514E-003 -2.891E-002
 2.902E+002 -1.100E+002 0.000E+000 7.390E-002 5.417E-003 -2.444E-002
 3.106E+002 -1.100E+002 0.000E+000 7.457E-002 3.603E-003 -2.060E-002
 3.311E+002 -1.100E+002 0.000E+000 6.208E-002 3.463E-003 -1.953E-002
 3.515E+002 -1.100E+002 0.000E+000 4.114E-002 3.140E-003 -1.815E-002
 3.720E+002 -1.100E+002 0.000E+000 1.950E-002 2.610E-003 -1.620E-002
 -4.260E+002 -8.747E+001 0.000E+000 2.283E-002 2.927E-002 -1.638E-002
 -4.055E+002 -8.747E+001 0.000E+000 2.831E-002 2.960E-002 -1.840E-002
 -3.851E+002 -8.747E+001 0.000E+000 3.197E-002 2.949E-002 -2.012E-002
 -3.646E+002 -8.747E+001 0.000E+000 3.441E-002 2.917E-002 -2.090E-002
 -3.442E+002 -8.747E+001 0.000E+000 3.963E-002 2.768E-002 -2.033E-002
 -3.237E+002 -8.747E+001 0.000E+000 4.486E-002 2.604E-002 -1.970E-002
 -3.032E+002 -8.747E+001 0.000E+000 4.644E-002 2.505E-002 -1.950E-002
 -2.828E+002 -8.747E+001 0.000E+000 4.221E-002 2.455E-002 -1.996E-002
 -2.623E+002 -8.747E+001 0.000E+000 2.894E-002 2.442E-002 -2.165E-002
 -2.418E+002 -8.747E+001 0.000E+000 1.581E-002 2.435E-002 -2.349E-002
 -2.214E+002 -8.747E+001 0.000E+000 4.488E-003 2.349E-002 -2.565E-002
 -2.009E+002 -8.747E+001 0.000E+000 -3.717E-003 2.148E-002 -2.845E-002
 -1.805E+002 -8.747E+001 0.000E+000 -1.213E-002 1.922E-002 -3.117E-002
 -1.600E+002 -8.747E+001 0.000E+000 -2.112E-002 1.731E-002 -3.357E-002
 -1.395E+002 -8.747E+001 0.000E+000 -2.952E-002 1.597E-002 -3.531E-002
 -1.191E+002 -8.747E+001 0.000E+000 -3.353E-002 1.520E-002 -3.589E-002
 -9.862E+001 -8.747E+001 0.000E+000 -3.539E-002 1.464E-002 -3.653E-002
 -7.815E+001 -8.747E+001 0.000E+000 -3.472E-002 1.431E-002 -3.833E-002
 -5.769E+001 -8.747E+001 0.000E+000 -2.939E-002 1.402E-002 -4.287E-002
 -3.723E+001 -8.747E+001 0.000E+000 -2.702E-002 1.347E-002 -4.775E-002
 -1.677E+001 -8.747E+001 0.000E+000 -2.393E-002 1.245E-002 -5.267E-002
 3.692E+000 -8.747E+001 0.000E+000 -1.935E-002 1.096E-002 -5.736E-002
 2.415E+001 -8.747E+001 0.000E+000 -1.085E-002 9.488E-003 -6.191E-002
 4.462E+001 -8.747E+001 0.000E+000 -1.487E-003 8.243E-003 -6.665E-002
 6.508E+001 -8.747E+001 0.000E+000 1.468E-002 8.251E-003 -7.077E-002
 8.554E+001 -8.747E+001 0.000E+000 4.243E-002 1.017E-002 -7.387E-002
 1.060E+002 -8.747E+001 0.000E+000 7.011E-002 1.236E-002 -7.646E-002
 1.265E+002 -8.747E+001 0.000E+000 8.428E-002 1.450E-002 -7.599E-002
 1.469E+002 -8.747E+001 0.000E+000 8.929E-002 1.637E-002 -7.266E-002
 1.674E+002 -8.747E+001 0.000E+000 9.845E-002 1.733E-002 -6.893E-002
 1.878E+002 -8.747E+001 0.000E+000 1.028E-001 1.777E-002 -6.475E-002
 2.083E+002 -8.747E+001 0.000E+000 1.053E-001 1.760E-002 -6.030E-002
 2.288E+002 -8.747E+001 0.000E+000 1.059E-001 1.677E-002 -5.556E-002
 2.492E+002 -8.747E+001 0.000E+000 1.051E-001 1.577E-002 -5.104E-002
 2.697E+002 -8.747E+001 0.000E+000 1.033E-001 1.476E-002 -4.606E-002
 2.902E+002 -8.747E+001 0.000E+000 1.017E-001 1.360E-002 -4.074E-002
 3.106E+002 -8.747E+001 0.000E+000 9.918E-002 1.271E-002 -3.546E-002
 3.311E+002 -8.747E+001 0.000E+000 8.345E-002 1.258E-002 -3.249E-002
 3.515E+002 -8.747E+001 0.000E+000 5.862E-002 1.248E-002 -2.962E-002
 3.720E+002 -8.747E+001 0.000E+000 3.309E-002 1.232E-002 -2.651E-002
 -4.260E+002 -6.495E+001 0.000E+000 5.995E-003 2.711E-002 -1.484E-002
 -4.055E+002 -6.495E+001 0.000E+000 1.289E-002 2.692E-002 -1.687E-002
 -3.851E+002 -6.495E+001 0.000E+000 1.907E-002 2.596E-002 -1.868E-002
 -3.646E+002 -6.495E+001 0.000E+000 2.382E-002 2.521E-002 -1.967E-002
 -3.442E+002 -6.495E+001 0.000E+000 3.048E-002 2.347E-002 -1.938E-002
 -3.237E+002 -6.495E+001 0.000E+000 3.898E-002 2.106E-002 -1.903E-002
 -3.032E+002 -6.495E+001 0.000E+000 4.247E-002 1.974E-002 -1.923E-002
 -2.828E+002 -6.495E+001 0.000E+000 3.921E-002 1.873E-002 -2.007E-002
 -2.623E+002 -6.495E+001 0.000E+000 2.589E-002 1.869E-002 -2.231E-002
 -2.418E+002 -6.495E+001 0.000E+000 1.134E-002 1.842E-002 -2.478E-002
 -2.214E+002 -6.495E+001 0.000E+000 8.960E-005 1.778E-002 -2.790E-002
 -2.009E+002 -6.495E+001 0.000E+000 -5.556E-003 1.619E-002 -3.153E-002
 -1.805E+002 -6.495E+001 0.000E+000 -1.096E-002 1.470E-002 -3.509E-002
 -1.600E+002 -6.495E+001 0.000E+000 -1.826E-002 1.352E-002 -3.831E-002
 -1.395E+002 -6.495E+001 0.000E+000 -2.572E-002 1.278E-002 -4.061E-002
 -1.191E+002 -6.495E+001 0.000E+000 -2.960E-002 1.295E-002 -4.210E-002
 -9.862E+001 -6.495E+001 0.000E+000 -3.231E-002 1.339E-002 -4.298E-002
 -7.815E+001 -6.495E+001 0.000E+000 -3.084E-002 1.377E-002 -4.601E-002
 -5.769E+001 -6.495E+001 0.000E+000 -2.276E-002 1.348E-002 -5.200E-002
 -3.723E+001 -6.495E+001 0.000E+000 -1.896E-002 1.304E-002 -5.827E-002
 -1.677E+001 -6.495E+001 0.000E+000 -1.323E-002 1.192E-002 -6.540E-002
 3.692E+000 -6.495E+001 0.000E+000 -4.810E-003 1.047E-002 -7.208E-002
 2.415E+001 -6.495E+001 0.000E+000 7.973E-003 9.053E-003 -7.843E-002
 4.462E+001 -6.495E+001 0.000E+000 2.056E-002 7.503E-003 -8.455E-002
 6.508E+001 -6.495E+001 0.000E+000 4.087E-002 7.683E-003 -9.076E-002
 8.554E+001 -6.495E+001 0.000E+000 6.937E-002 9.900E-003 -9.479E-002
 1.060E+002 -6.495E+001 0.000E+000 1.002E-001 1.252E-002 -9.870E-002
 1.265E+002 -6.495E+001 0.000E+000 1.163E-001 1.551E-002 -9.851E-002
 1.469E+002 -6.495E+001 0.000E+000 1.237E-001 1.903E-002 -9.614E-002
 1.674E+002 -6.495E+001 0.000E+000 1.345E-001 2.211E-002 -9.290E-002
 1.878E+002 -6.495E+001 0.000E+000 1.377E-001 2.454E-002 -8.790E-002
 2.083E+002 -6.495E+001 0.000E+000 1.411E-001 2.644E-002 -8.290E-002
 2.288E+002 -6.495E+001 0.000E+000 1.440E-001 2.682E-002 -7.701E-002
 2.492E+002 -6.495E+001 0.000E+000 1.423E-001 2.682E-002 -7.079E-002
 2.697E+002 -6.495E+001 0.000E+000 1.371E-001 2.668E-002 -6.394E-002
 2.902E+002 -6.495E+001 0.000E+000 1.297E-001 2.652E-002 -5.745E-002
 3.106E+002 -6.495E+001 0.000E+000 1.234E-001 2.619E-002 -5.088E-002
 3.311E+002 -6.495E+001 0.000E+000 1.083E-001 2.575E-002 -4.639E-002
 3.515E+002 -6.495E+001 0.000E+000 8.358E-002 2.479E-002 -4.169E-002
 3.720E+002 -6.495E+001 0.000E+000 5.778E-002 2.368E-002 -3.670E-002
 -4.260E+002 -4.242E+001 0.000E+000 -5.615E-003 1.810E-002 -1.297E-002
 -4.055E+002 -4.242E+001 0.000E+000 4.367E-003 1.684E-002 -1.500E-002
 -3.851E+002 -4.242E+001 0.000E+000 1.356E-002 1.528E-002 -1.702E-002
 -3.646E+002 -4.242E+001 0.000E+000 2.025E-002 1.411E-002 -1.820E-002
 -3.442E+002 -4.242E+001 0.000E+000 2.592E-002 1.291E-002 -1.815E-002
 -3.237E+002 -4.242E+001 0.000E+000 3.111E-002 1.167E-002 -1.804E-002
 -3.032E+002 -4.242E+001 0.000E+000 3.399E-002 1.063E-002 -1.830E-002
 -2.828E+002 -4.242E+001 0.000E+000 3.114E-002 1.023E-002 -1.920E-002
 -2.623E+002 -4.242E+001 0.000E+000 1.831E-002 1.051E-002 -2.168E-002
 -2.418E+002 -4.242E+001 0.000E+000 3.796E-003 1.106E-002 -2.436E-002
 -2.214E+002 -4.242E+001 0.000E+000 -6.584E-003 1.090E-002 -2.768E-002
 -2.009E+002 -4.242E+001 0.000E+000 -9.116E-003 9.228E-003 -3.206E-002
 -1.805E+002 -4.242E+001 0.000E+000 -1.110E-002 7.380E-003 -3.655E-002
 -1.600E+002 -4.242E+001 0.000E+000 -1.485E-002 5.490E-003 -4.070E-002
 -1.395E+002 -4.242E+001 0.000E+000 -1.953E-002 4.646E-003 -4.427E-002
 -1.191E+002 -4.242E+001 0.000E+000 -2.225E-002 4.845E-003 -4.703E-002
 -9.862E+001 -4.242E+001 0.000E+000 -2.389E-002 5.160E-003 -4.961E-002
 -7.815E+001 -4.242E+001 0.000E+000 -2.067E-002 5.667E-003 -5.370E-002
 -5.769E+001 -4.242E+001 0.000E+000 -1.066E-002 5.519E-003 -6.084E-002
 -3.723E+001 -4.242E+001 0.000E+000 -4.539E-003 5.113E-003 -6.834E-002
 -1.677E+001 -4.242E+001 0.000E+000 1.947E-003 4.212E-003 -7.660E-002
 3.692E+000 -4.242E+001 0.000E+000 1.266E-002 3.392E-003 -8.453E-002
 2.415E+001 -4.242E+001 0.000E+000 2.894E-002 2.313E-003 -9.200E-002
 4.462E+001 -4.242E+001 0.000E+000 4.405E-002 1.127E-003 -9.958E-002
 6.508E+001 -4.242E+001 0.000E+000 6.277E-002 1.446E-003 -1.059E-001
 8.554E+001 -4.242E+001 0.000E+000 8.904E-002 3.830E-003 -1.105E-001
 1.060E+002 -4.242E+001 0.000E+000 1.175E-001 6.555E-003 -1.150E-001
 1.265E+002 -4.242E+001 0.000E+000 1.335E-001 1.041E-002 -1.161E-001
 1.469E+002 -4.242E+001 0.000E+000 1.392E-001 1.567E-002 -1.142E-001
 1.674E+002 -4.242E+001 0.000E+000 1.491E-001 2.097E-002 -1.118E-001
 1.878E+002 -4.242E+001 0.000E+000 1.538E-001 2.658E-002 -1.079E-001
 2.083E+002 -4.242E+001 0.000E+000 1.594E-001 3.099E-002 -1.027E-001
 2.288E+002 -4.242E+001 0.000E+000 1.649E-001 3.295E-002 -9.656E-002
 2.492E+002 -4.242E+001 0.000E+000 1.645E-001 3.484E-002 -8.968E-002
 2.697E+002 -4.242E+001 0.000E+000 1.558E-001 3.597E-002 -8.183E-002
 2.902E+002 -4.242E+001 0.000E+000 1.444E-001 3.637E-002 -7.338E-002
 3.106E+002 -4.242E+001 0.000E+000 1.357E-001 3.636E-002 -6.547E-002
 3.311E+002 -4.242E+001 0.000E+000 1.224E-001 3.537E-002 -5.930E-002
 3.515E+002 -4.242E+001 0.000E+000 1.042E-001 3.375E-002 -5.269E-002
 3.720E+002 -4.242E+001 0.000E+000 8.100E-002 3.213E-002 -4.587E-002
 -4.260E+002 -1.989E+001 0.000E+000 -1.738E-002 7.209E-003 -1.211E-002
 -4.055E+002 -1.989E+001 0.000E+000 -4.536E-003 5.049E-003 -1.411E-002
 -3.851E+002 -1.989E+001 0.000E+000 6.770E-003 3.739E-003 -1.580E-002
 -3.646E+002 -1.989E+001 0.000E+000 1.510E-002 2.214E-003 -1.701E-002
 -3.442E+002 -1.989E+001 0.000E+000 1.825E-002 2.181E-003 -1.713E-002
 -3.237E+002 -1.989E+001 0.000E+000 2.081E-002 2.723E-003 -1.723E-002
 -3.032E+002 -1.989E+001 0.000E+000 2.266E-002 2.637E-003 -1.759E-002
 -2.828E+002 -1.989E+001 0.000E+000 2.133E-002 2.450E-003 -1.858E-002
 -2.623E+002 -1.989E+001 0.000E+000 1.042E-002 3.244E-003 -2.108E-002
 -2.418E+002 -1.989E+001 0.000E+000 -1.007E-003 3.996E-003 -2.368E-002
 -2.214E+002 -1.989E+001 0.000E+000 -8.847E-003 3.647E-003 -2.696E-002
 -2.009E+002 -1.989E+001 0.000E+000 -8.142E-003 1.189E-003 -3.202E-002
 -1.805E+002 -1.989E+001 0.000E+000 -7.945E-003 -1.504E-003 -3.729E-002
 -1.600E+002 -1.989E+001 0.000E+000 -9.232E-003 -4.611E-003 -4.236E-002
 -1.395E+002 -1.989E+001 0.000E+000 -1.109E-002 -7.669E-003 -4.715E-002
 -1.191E+002 -1.989E+001 0.000E+000 -1.252E-002 -8.027E-003 -5.135E-002
 -9.862E+001 -1.989E+001 0.000E+000 -1.407E-002 -8.571E-003 -5.518E-002
 -7.815E+001 -1.989E+001 0.000E+000 -1.122E-002 -8.932E-003 -6.033E-002
 -5.769E+001 -1.989E+001 0.000E+000 3.077E-004 -9.113E-003 -6.820E-002
 -3.723E+001 -1.989E+001 0.000E+000 5.340E-003 -8.419E-003 -7.652E-002
 -1.677E+001 -1.989E+001 0.000E+000 1.205E-002 -8.281E-003 -8.515E-002
 3.692E+000 -1.989E+001 0.000E+000 2.448E-002 -9.145E-003 -9.419E-002
 2.415E+001 -1.989E+001 0.000E+000 4.292E-002 -8.914E-003 -1.021E-001
 4.462E+001 -1.989E+001 0.000E+000 6.080E-002 -9.016E-003 -1.099E-001
 6.508E+001 -1.989E+001 0.000E+000 7.956E-002 -8.439E-003 -1.167E-001
 8.554E+001 -1.989E+001 0.000E+000 1.029E-001 -6.483E-003 -1.211E-001
 1.060E+002 -1.989E+001 0.000E+000 1.292E-001 -3.121E-003 -1.251E-001
 1.265E+002 -1.989E+001 0.000E+000 1.437E-001 1.333E-003 -1.265E-001
 1.469E+002 -1.989E+001 0.000E+000 1.465E-001 7.074E-003 -1.259E-001
 1.674E+002 -1.989E+001 0.000E+000 1.522E-001 1.472E-002 -1.247E-001
 1.878E+002 -1.989E+001 0.000E+000 1.527E-001 2.232E-002 -1.217E-001
 2.083E+002 -1.989E+001 0.000E+000 1.558E-001 2.835E-002 -1.181E-001
 2.288E+002 -1.989E+001 0.000E+000 1.629E-001 3.185E-002 -1.131E-001
 2.492E+002 -1.989E+001 0.000E+000 1.591E-001 3.595E-002 -1.063E-001
 2.697E+002 -1.989E+001 0.000E+000 1.493E-001 3.799E-002 -9.780E-002
 2.902E+002 -1.989E+001 0.000E+000 1.376E-001 3.842E-002 -8.822E-002
 3.106E+002 -1.989E+001 0.000E+000 1.284E-001 3.847E-002 -7.883E-002
 3.311E+002 -1.989E+001 0.000E+000 1.208E-001 3.744E-002 -7.055E-002
 3.515E+002 -1.989E+001 0.000E+000 1.098E-001 3.596E-002 -6.204E-002
 3.720E+002 -1.989E+001 0.000E+000 9.260E-002 3.486E-002 -5.326E-002
 -4.260E+002 2.632E+000 0.000E+000 -2.401E-002 -1.330E-003 -1.286E-002
 -4.055E+002 2.632E+000 0.000E+000 -1.387E-002 -2.556E-003 -1.384E-002
 -3.851E+002 2.632E+000 0.000E+000 -4.240E-003 -3.259E-003 -1.489E-002
 -3.646E+002 2.632E+000 0.000E+000 3.495E-003 -4.419E-003 -1.563E-002
 -3.442E+002 2.632E+000 0.000E+000 5.902E-003 -3.428E-003 -1.613E-002
 -3.237E+002 2.632E+000 0.000E+000 7.404E-003 -1.868E-003 -1.650E-002
 -3.032E+002 2.632E+000 0.000E+000 1.017E-002 -1.403E-003 -1.720E-002
 -2.828E+002 2.632E+000 0.000E+000 1.154E-002 -1.197E-003 -1.856E-002
 -2.623E+002 2.632E+000 0.000E+000 7.065E-003 -9.173E-004 -2.112E-002
 -2.418E+002 2.632E+000 0.000E+000 1.285E-003 -7.013E-004 -2.381E-002
 -2.214E+002 2.632E+000 0.000E+000 -1.096E-003 -1.668E-003 -2.728E-002
 -2.009E+002 2.632E+000 0.000E+000 2.538E-003 -5.285E-003 -3.260E-002
 -1.805E+002 2.632E+000 0.000E+000 3.301E-003 -9.241E-003 -3.856E-002
 -1.600E+002 2.632E+000 0.000E+000 2.401E-003 -1.379E-002 -4.434E-002
 -1.395E+002 2.632E+000 0.000E+000 1.116E-003 -1.922E-002 -4.989E-002
 -1.191E+002 2.632E+000 0.000E+000 -3.639E-003 -2.122E-002 -5.510E-002
 -9.862E+001 2.632E+000 0.000E+000 -9.417E-003 -2.274E-002 -6.003E-002
 -7.815E+001 2.632E+000 0.000E+000 -9.476E-003 -2.454E-002 -6.584E-002
 -5.769E+001 2.632E+000 0.000E+000 -2.157E-003 -2.382E-002 -7.365E-002
 -3.723E+001 2.632E+000 0.000E+000 -4.639E-004 -2.020E-002 -8.180E-002
 -1.677E+001 2.632E+000 0.000E+000 5.859E-003 -1.845E-002 -9.038E-002
 3.692E+000 2.632E+000 0.000E+000 1.886E-002 -1.886E-002 -9.944E-002
 2.415E+001 2.632E+000 0.000E+000 4.254E-002 -1.773E-002 -1.081E-001
 4.462E+001 2.632E+000 0.000E+000 6.358E-002 -1.651E-002 -1.162E-001
 6.508E+001 2.632E+000 0.000E+000 8.552E-002 -1.609E-002 -1.230E-001
 8.554E+001 2.632E+000 0.000E+000 1.086E-001 -1.485E-002 -1.273E-001
 1.060E+002 2.632E+000 0.000E+000 1.355E-001 -1.100E-002 -1.306E-001
 1.265E+002 2.632E+000 0.000E+000 1.496E-001 -5.979E-003 -1.320E-001
 1.469E+002 2.632E+000 0.000E+000 1.513E-001 -3.044E-004 -1.316E-001
 1.674E+002 2.632E+000 0.000E+000 1.482E-001 8.390E-003 -1.316E-001
 1.878E+002 2.632E+000 0.000E+000 1.430E-001 1.727E-002 -1.303E-001
 2.083E+002 2.632E+000 0.000E+000 1.385E-001 2.353E-002 -1.279E-001
 2.288E+002 2.632E+000 0.000E+000 1.376E-001 2.756E-002 -1.242E-001
 2.492E+002 2.632E+000 0.000E+000 1.302E-001 3.356E-002 -1.184E-001
 2.697E+002 2.632E+000 0.000E+000 1.212E-001 3.607E-002 -1.100E-001
 2.902E+002 2.632E+000 0.000E+000 1.131E-001 3.559E-002 -9.991E-002
 3.106E+002 2.632E+000 0.000E+000 1.085E-001 3.502E-002 -8.937E-002
 3.311E+002 2.632E+000 0.000E+000 1.048E-001 3.541E-002 -7.909E-002
 3.515E+002 2.632E+000 0.000E+000 9.761E-002 3.509E-002 -6.872E-002
 3.720E+002 2.632E+000 0.000E+000 8.663E-002 3.435E-002 -5.787E-002
 -4.260E+002 2.516E+001 0.000E+000 -2.887E-002 3.846E-003 -1.230E-002
 -4.055E+002 2.516E+001 0.000E+000 -2.672E-002 3.810E-003 -1.279E-002
 -3.851E+002 2.516E+001 0.000E+000 -2.362E-002 4.291E-003 -1.321E-002
 -3.646E+002 2.516E+001 0.000E+000 -2.112E-002 4.231E-003 -1.362E-002
 -3.442E+002 2.516E+001 0.000E+000 -1.604E-002 3.764E-003 -1.413E-002
 -3.237E+002 2.516E+001 0.000E+000 -1.089E-002 3.450E-003 -1.453E-002
 -3.032E+002 2.516E+001 0.000E+000 -4.491E-003 2.460E-003 -1.518E-002
 -2.828E+002 2.516E+001 0.000E+000 1.922E-003 9.738E-004 -1.663E-002
 -2.623E+002 2.516E+001 0.000E+000 1.823E-003 -2.052E-004 -1.981E-002
 -2.418E+002 2.516E+001 0.000E+000 1.600E-003 -1.079E-003 -2.305E-002
 -2.214E+002 2.516E+001 0.000E+000 3.234E-003 -2.954E-003 -2.714E-002
 -2.009E+002 2.516E+001 0.000E+000 6.722E-003 -5.178E-003 -3.261E-002
 -1.805E+002 2.516E+001 0.000E+000 6.713E-003 -7.959E-003 -3.893E-002
 -1.600E+002 2.516E+001 0.000E+000 4.602E-003 -1.158E-002 -4.517E-002
 -1.395E+002 2.516E+001 0.000E+000 2.705E-004 -1.560E-002 -5.114E-002
 -1.191E+002 2.516E+001 0.000E+000 -1.398E-002 -1.695E-002 -5.767E-002
 -9.862E+001 2.516E+001 0.000E+000 -3.036E-002 -1.760E-002 -6.404E-002
 -7.815E+001 2.516E+001 0.000E+000 -4.016E-002 -1.781E-002 -7.115E-002
 -5.769E+001 2.516E+001 0.000E+000 -3.951E-002 -1.441E-002 -7.911E-002
 -3.723E+001 2.516E+001 0.000E+000 -3.275E-002 -9.236E-003 -8.590E-002
 -1.677E+001 2.516E+001 0.000E+000 -2.192E-002 -5.169E-003 -9.328E-002
 3.692E+000 2.516E+001 0.000E+000 -4.171E-003 -2.982E-003 -1.014E-001
 2.415E+001 2.516E+001 0.000E+000 2.006E-002 -2.621E-003 -1.101E-001
 4.462E+001 2.516E+001 0.000E+000 4.374E-002 -1.882E-003 -1.187E-001
 6.508E+001 2.516E+001 0.000E+000 6.904E-002 -2.085E-003 -1.261E-001
 8.554E+001 2.516E+001 0.000E+000 9.674E-002 -5.264E-004 -1.314E-001
 1.060E+002 2.516E+001 0.000E+000 1.301E-001 1.712E-003 -1.359E-001
 1.265E+002 2.516E+001 0.000E+000 1.499E-001 6.182E-003 -1.381E-001
 1.469E+002 2.516E+001 0.000E+000 1.556E-001 1.239E-002 -1.384E-001
 1.674E+002 2.516E+001 0.000E+000 1.592E-001 1.935E-002 -1.372E-001
 1.878E+002 2.516E+001 0.000E+000 1.543E-001 2.701E-002 -1.357E-001
 2.083E+002 2.516E+001 0.000E+000 1.466E-001 3.278E-002 -1.330E-001
 2.288E+002 2.516E+001 0.000E+000 1.375E-001 3.867E-002 -1.285E-001
 2.492E+002 2.516E+001 0.000E+000 1.228E-001 4.484E-002 -1.232E-001
 2.697E+002 2.516E+001 0.000E+000 1.111E-001 4.756E-002 -1.150E-001
 2.902E+002 2.516E+001 0.000E+000 1.039E-001 4.695E-002 -1.046E-001
 3.106E+002 2.516E+001 0.000E+000 9.884E-002 4.622E-002 -9.326E-002
 3.311E+002 2.516E+001 0.000E+000 9.244E-002 4.608E-002 -8.159E-002
 3.515E+002 2.516E+001 0.000E+000 8.164E-002 4.569E-002 -7.019E-002
 3.720E+002 2.516E+001 0.000E+000 6.793E-002 4.578E-002 -5.933E-002
 -4.260E+002 4.768E+001 0.000E+000 -2.938E-002 7.465E-003 -1.136E-002
 -4.055E+002 4.768E+001 0.000E+000 -3.219E-002 8.676E-003 -1.150E-002
 -3.851E+002 4.768E+001 0.000E+000 -3.606E-002 1.004E-002 -1.158E-002
 -3.646E+002 4.768E+001 0.000E+000 -3.629E-002 1.041E-002 -1.188E-002
 -3.442E+002 4.768E+001 0.000E+000 -3.080E-002 9.568E-003 -1.251E-002
 -3.237E+002 4.768E+001 0.000E+000 -2.465E-002 8.107E-003 -1.297E-002
 -3.032E+002 4.768E+001 0.000E+000 -1.591E-002 5.728E-003 -1.378E-002
 -2.828E+002 4.768E+001 0.000E+000 -7.233E-003 3.364E-003 -1.527E-002
 -2.623E+002 4.768E+001 0.000E+000 -5.587E-003 1.544E-003 -1.859E-002
 -2.418E+002 4.768E+001 0.000E+000 -3.197E-003 -4.426E-004 -2.239E-002
 -2.214E+002 4.768E+001 0.000E+000 -1.172E-003 -1.988E-003 -2.645E-002
 -2.009E+002 4.768E+001 0.000E+000 1.327E-003 -3.986E-003 -3.193E-002
 -1.805E+002 4.768E+001 0.000E+000 -1.933E-004 -6.385E-003 -3.829E-002
 -1.600E+002 4.768E+001 0.000E+000 -4.046E-003 -9.250E-003 -4.503E-002
 -1.395E+002 4.768E+001 0.000E+000 -1.150E-002 -1.179E-002 -5.120E-002
 -1.191E+002 4.768E+001 0.000E+000 -2.844E-002 -1.162E-002 -5.854E-002
 -9.862E+001 4.768E+001 0.000E+000 -4.921E-002 -1.120E-002 -6.580E-002
 -7.815E+001 4.768E+001 0.000E+000 -6.467E-002 -8.800E-003 -7.364E-002
 -5.769E+001 4.768E+001 0.000E+000 -6.765E-002 -4.894E-003 -8.203E-002
 -3.723E+001 4.768E+001 0.000E+000 -6.316E-002 6.015E-004 -8.896E-002
 -1.677E+001 4.768E+001 0.000E+000 -5.227E-002 6.416E-003 -9.658E-002
 3.692E+000 4.768E+001 0.000E+000 -3.828E-002 1.047E-002 -1.045E-001
 2.415E+001 4.768E+001 0.000E+000 -1.640E-002 1.288E-002 -1.137E-001
 4.462E+001 4.768E+001 0.000E+000 4.530E-003 1.456E-002 -1.223E-001
 6.508E+001 4.768E+001 0.000E+000 2.946E-002 1.630E-002 -1.305E-001
 8.554E+001 4.768E+001 0.000E+000 5.720E-002 1.915E-002 -1.373E-001
 1.060E+002 4.768E+001 0.000E+000 9.132E-002 2.147E-002 -1.429E-001
 1.265E+002 4.768E+001 0.000E+000 1.144E-001 2.635E-002 -1.463E-001
 1.469E+002 4.768E+001 0.000E+000 1.231E-001 3.268E-002 -1.469E-001
 1.674E+002 4.768E+001 0.000E+000 1.334E-001 3.861E-002 -1.452E-001
 1.878E+002 4.768E+001 0.000E+000 1.363E-001 4.392E-002 -1.430E-001
 2.083E+002 4.768E+001 0.000E+000 1.340E-001 4.962E-002 -1.395E-001
 2.288E+002 4.768E+001 0.000E+000 1.302E-001 5.507E-002 -1.340E-001
 2.492E+002 4.768E+001 0.000E+000 1.211E-001 6.031E-002 -1.278E-001
 2.697E+002 4.768E+001 0.000E+000 1.083E-001 6.376E-002 -1.186E-001
 2.902E+002 4.768E+001 0.000E+000 9.500E-002 6.494E-002 -1.079E-001
 3.106E+002 4.768E+001 0.000E+000 8.294E-002 6.540E-002 -9.640E-002
 3.311E+002 4.768E+001 0.000E+000 7.068E-002 6.463E-002 -8.477E-002
 3.515E+002 4.768E+001 0.000E+000 5.617E-002 6.304E-002 -7.202E-002
 3.720E+002 4.768E+001 0.000E+000 4.363E-002 6.081E-002 -6.080E-002
 -4.260E+002 7.021E+001 0.000E+000 -2.327E-002 6.931E-003 -1.041E-002
 -4.055E+002 7.021E+001 0.000E+000 -2.839E-002 8.634E-003 -1.049E-002
 -3.851E+002 7.021E+001 0.000E+000 -3.392E-002 1.052E-002 -1.055E-002
 -3.646E+002 7.021E+001 0.000E+000 -3.693E-002 1.142E-002 -1.093E-002
 -3.442E+002 7.021E+001 0.000E+000 -3.224E-002 1.126E-002 -1.172E-002
 -3.237E+002 7.021E+001 0.000E+000 -2.663E-002 1.095E-002 -1.238E-002
 -3.032E+002 7.021E+001 0.000E+000 -2.068E-002 9.043E-003 -1.324E-002
 -2.828E+002 7.021E+001 0.000E+000 -1.322E-002 6.893E-003 -1.460E-002
 -2.623E+002 7.021E+001 0.000E+000 -1.284E-002 4.473E-003 -1.779E-002
 -2.418E+002 7.021E+001 0.000E+000 -1.232E-002 2.639E-003 -2.117E-002
 -2.214E+002 7.021E+001 0.000E+000 -1.198E-002 3.848E-004 -2.518E-002
 -2.009E+002 7.021E+001 0.000E+000 -1.149E-002 -1.897E-003 -3.033E-002
 -1.805E+002 7.021E+001 0.000E+000 -1.619E-002 -4.859E-003 -3.664E-002
 -1.600E+002 7.021E+001 0.000E+000 -2.292E-002 -7.812E-003 -4.319E-002
 -1.395E+002 7.021E+001 0.000E+000 -3.029E-002 -9.659E-003 -4.991E-002
 -1.191E+002 7.021E+001 0.000E+000 -4.607E-002 -7.798E-003 -5.772E-002
 -9.862E+001 7.021E+001 0.000E+000 -6.416E-002 -4.617E-003 -6.548E-002
 -7.815E+001 7.021E+001 0.000E+000 -7.817E-002 -1.840E-003 -7.379E-002
 -5.769E+001 7.021E+001 0.000E+000 -8.335E-002 2.079E-003 -8.252E-002
 -3.723E+001 7.021E+001 0.000E+000 -8.221E-002 7.922E-003 -9.019E-002
 -1.677E+001 7.021E+001 0.000E+000 -7.657E-002 1.370E-002 -9.826E-002
 3.692E+000 7.021E+001 0.000E+000 -6.720E-002 1.904E-002 -1.073E-001
 2.415E+001 7.021E+001 0.000E+000 -4.842E-002 2.387E-002 -1.169E-001
 4.462E+001 7.021E+001 0.000E+000 -2.990E-002 2.921E-002 -1.261E-001
 6.508E+001 7.021E+001 0.000E+000 -1.057E-002 3.389E-002 -1.348E-001
 8.554E+001 7.021E+001 0.000E+000 1.378E-002 3.909E-002 -1.427E-001
 1.060E+002 7.021E+001 0.000E+000 4.347E-002 4.318E-002 -1.491E-001
 1.265E+002 7.021E+001 0.000E+000 6.443E-002 4.939E-002 -1.534E-001
 1.469E+002 7.021E+001 0.000E+000 7.580E-002 5.549E-002 -1.547E-001
 1.674E+002 7.021E+001 0.000E+000 9.311E-002 6.042E-002 -1.524E-001
 1.878E+002 7.021E+001 0.000E+000 1.055E-001 6.526E-002 -1.493E-001
 2.083E+002 7.021E+001 0.000E+000 1.132E-001 6.937E-002 -1.451E-001
 2.288E+002 7.021E+001 0.000E+000 1.179E-001 7.377E-002 -1.387E-001
 2.492E+002 7.021E+001 0.000E+000 1.193E-001 7.756E-002 -1.315E-001
 2.697E+002 7.021E+001 0.000E+000 1.083E-001 8.078E-002 -1.215E-001
 2.902E+002 7.021E+001 0.000E+000 8.714E-002 8.267E-002 -1.103E-001
 3.106E+002 7.021E+001 0.000E+000 6.871E-002 8.369E-002 -9.919E-002
 3.311E+002 7.021E+001 0.000E+000 5.198E-002 8.221E-002 -8.734E-002
 3.515E+002 7.021E+001 0.000E+000 3.785E-002 7.793E-002 -7.502E-002
 3.720E+002 7.021E+001 0.000E+000 2.678E-002 7.322E-002 -6.370E-002
 -4.260E+002 9.274E+001 0.000E+000 -1.259E-002 5.019E-003 -9.218E-003
 -4.055E+002 9.274E+001 0.000E+000 -1.736E-002 7.009E-003 -9.548E-003
 -3.851E+002 9.274E+001 0.000E+000 -2.149E-002 9.277E-003 -9.922E-003
 -3.646E+002 9.274E+001 0.000E+000 -2.405E-002 1.116E-002 -1.050E-002
 -3.442E+002 9.274E+001 0.000E+000 -2.167E-002 1.310E-002 -1.145E-002
 -3.237E+002 9.274E+001 0.000E+000 -1.829E-002 1.533E-002 -1.230E-002
 -3.032E+002 9.274E+001 0.000E+000 -1.449E-002 1.609E-002 -1.322E-002
 -2.828E+002 9.274E+001 0.000E+000 -1.177E-002 1.424E-002 -1.439E-002
 -2.623E+002 9.274E+001 0.000E+000 -1.467E-002 1.129E-002 -1.714E-002
 -2.418E+002 9.274E+001 0.000E+000 -1.950E-002 7.210E-003 -1.993E-002
 -2.214E+002 9.274E+001 0.000E+000 -2.386E-002 3.745E-003 -2.319E-002
 -2.009E+002 9.274E+001 0.000E+000 -2.695E-002 6.013E-004 -2.778E-002
 -1.805E+002 9.274E+001 0.000E+000 -3.659E-002 -2.423E-003 -3.406E-002
 -1.600E+002 9.274E+001 0.000E+000 -4.831E-002 -4.156E-003 -4.055E-002
 -1.395E+002 9.274E+001 0.000E+000 -5.813E-002 -5.255E-003 -4.732E-002
 -1.191E+002 9.274E+001 0.000E+000 -6.918E-002 -1.029E-003 -5.553E-002
 -9.862E+001 9.274E+001 0.000E+000 -7.997E-002 3.471E-003 -6.363E-002
 -7.815E+001 9.274E+001 0.000E+000 -8.923E-002 7.406E-003 -7.194E-002
 -5.769E+001 9.274E+001 0.000E+000 -9.414E-002 1.087E-002 -8.087E-002
 -3.723E+001 9.274E+001 0.000E+000 -9.186E-002 1.623E-002 -8.888E-002
 -1.677E+001 9.274E+001 0.000E+000 -8.683E-002 2.181E-002 -9.727E-002
 3.692E+000 9.274E+001 0.000E+000 -7.863E-002 2.800E-002 -1.066E-001
 2.415E+001 9.274E+001 0.000E+000 -6.158E-002 3.580E-002 -1.168E-001
 4.462E+001 9.274E+001 0.000E+000 -4.362E-002 4.393E-002 -1.271E-001
 6.508E+001 9.274E+001 0.000E+000 -2.743E-002 5.218E-002 -1.366E-001
 8.554E+001 9.274E+001 0.000E+000 -9.390E-003 6.012E-002 -1.446E-001
 1.060E+002 9.274E+001 0.000E+000 1.931E-002 6.558E-002 -1.517E-001
 1.265E+002 9.274E+001 0.000E+000 3.712E-002 7.169E-002 -1.566E-001
 1.469E+002 9.274E+001 0.000E+000 4.752E-002 7.881E-002 -1.586E-001
 1.674E+002 9.274E+001 0.000E+000 7.275E-002 8.300E-002 -1.556E-001
 1.878E+002 9.274E+001 0.000E+000 9.223E-002 8.679E-002 -1.515E-001
 2.083E+002 9.274E+001 0.000E+000 1.044E-001 9.059E-002 -1.465E-001
 2.288E+002 9.274E+001 0.000E+000 1.133E-001 9.368E-002 -1.398E-001
 2.492E+002 9.274E+001 0.000E+000 1.165E-001 9.572E-002 -1.319E-001
 2.697E+002 9.274E+001 0.000E+000 1.061E-001 9.656E-002 -1.220E-001
 2.902E+002 9.274E+001 0.000E+000 8.557E-002 9.654E-002 -1.106E-001
 3.106E+002 9.274E+001 0.000E+000 6.565E-002 9.595E-002 -9.965E-002
 3.311E+002 9.274E+001 0.000E+000 5.127E-002 9.179E-002 -8.876E-002
 3.515E+002 9.274E+001 0.000E+000 3.927E-002 8.607E-002 -7.807E-002
 3.720E+002 9.274E+001 0.000E+000 2.836E-002 7.959E-002 -6.762E-002
 -4.260E+002 1.153E+002 0.000E+000 -2.250E-003 6.772E-003 -7.085E-003
 -4.055E+002 1.153E+002 0.000E+000 -3.392E-003 9.882E-003 -7.709E-003
 -3.851E+002 1.153E+002 0.000E+000 -5.219E-003 1.303E-002 -8.325E-003
 -3.646E+002 1.153E+002 0.000E+000 -5.528E-003 1.660E-002 -9.094E-003
 -3.442E+002 1.153E+002 0.000E+000 -2.547E-003 2.153E-002 -1.050E-002
 -3.237E+002 1.153E+002 0.000E+000 -3.704E-004 2.586E-002 -1.190E-002
 -3.032E+002 1.153E+002 0.000E+000 1.783E-003 2.870E-002 -1.316E-002
 -2.828E+002 1.153E+002 0.000E+000 2.013E-003 2.880E-002 -1.460E-002
 -2.623E+002 1.153E+002 0.000E+000 -7.975E-003 2.039E-002 -1.659E-002
 -2.418E+002 1.153E+002 0.000E+000 -1.923E-002 1.245E-002 -1.871E-002
 -2.214E+002 1.153E+002 0.000E+000 -2.994E-002 5.656E-003 -2.129E-002
 -2.009E+002 1.153E+002 0.000E+000 -3.969E-002 2.119E-003 -2.508E-002
 -1.805E+002 1.153E+002 0.000E+000 -5.750E-002 3.342E-003 -3.083E-002
 -1.600E+002 1.153E+002 0.000E+000 -7.536E-002 5.175E-003 -3.697E-002
 -1.395E+002 1.153E+002 0.000E+000 -9.246E-002 8.174E-003 -4.343E-002
 -1.191E+002 1.153E+002 0.000E+000 -9.616E-002 1.307E-002 -5.179E-002
 -9.862E+001 1.153E+002 0.000E+000 -9.952E-002 1.794E-002 -5.988E-002
 -7.815E+001 1.153E+002 0.000E+000 -1.030E-001 2.215E-002 -6.802E-002
 -5.769E+001 1.153E+002 0.000E+000 -1.024E-001 2.571E-002 -7.660E-002
 -3.723E+001 1.153E+002 0.000E+000 -9.618E-002 3.096E-002 -8.473E-002
 -1.677E+001 1.153E+002 0.000E+000 -8.805E-002 3.677E-002 -9.321E-002
 3.692E+000 1.153E+002 0.000E+000 -7.651E-002 4.314E-002 -1.028E-001
 2.415E+001 1.153E+002 0.000E+000 -5.564E-002 5.326E-002 -1.135E-001
 4.462E+001 1.153E+002 0.000E+000 -3.551E-002 6.387E-002 -1.250E-001
 6.508E+001 1.153E+002 0.000E+000 -1.782E-002 7.416E-002 -1.356E-001
 8.554E+001 1.153E+002 0.000E+000 -2.756E-003 8.394E-002 -1.437E-001
 1.060E+002 1.153E+002 0.000E+000 2.309E-002 8.944E-002 -1.503E-001
 1.265E+002 1.153E+002 0.000E+000 3.931E-002 9.548E-002 -1.552E-001